<?xml version="1.0"?>
<VTKFile type="ImageData" version="1.0" byte_order="LittleEndian" header_type="UInt64">
<ImageData WholeExtent="0 9 0 9 0 9" Origin="array([[[0.        , 0.        , 0.        , 0.        , 0.        ,
         0.        , 0.        , 0.        , 0.        , 0.        ],
        [0.        , 0.        , 0.        , 0.        , 0.        ,
         0.        , 0.        , 0.        , 0.        , 0.        ],
        [0.        , 0.        , 0.        , 0.        , 0.        ,
         0.        , 0.        , 0.        , 0.        , 0.        ],
        [0.        , 0.        , 0.        , 0.        , 0.        ,
         0.        , 0.        , 0.        , 0.        , 0.        ],
        [0.        , 0.        , 0.        , 0.        , 0.        ,
         0.        , 0.        , 0.        , 0.        , 0.        ],
        [0.        , 0.        , 0.        , 0.        , 0.        ,
         0.        , 0.        , 0.        , 0.        , 0.        ],
        [0.        , 0.        , 0.        , 0.        , 0.        ,
         0.        , 0.        , 0.        , 0.        , 0.        ],
        [0.        , 0.        , 0.        , 0.        , 0.        ,
         0.        , 0.        , 0.        , 0.        , 0.        ],
        [0.        , 0.        , 0.        , 0.        , 0.        ,
         0.        , 0.        , 0.        , 0.        , 0.        ],
        [0.        , 0.        , 0.        , 0.        , 0.        ,
         0.        , 0.        , 0.        , 0.        , 0.        ]],

       [[0.11111111, 0.11111111, 0.11111111, 0.11111111, 0.11111111,
         0.11111111, 0.11111111, 0.11111111, 0.11111111, 0.11111111],
        [0.11111111, 0.11111111, 0.11111111, 0.11111111, 0.11111111,
         0.11111111, 0.11111111, 0.11111111, 0.11111111, 0.11111111],
        [0.11111111, 0.11111111, 0.11111111, 0.11111111, 0.11111111,
         0.11111111, 0.11111111, 0.11111111, 0.11111111, 0.11111111],
        [0.11111111, 0.11111111, 0.11111111, 0.11111111, 0.11111111,
         0.11111111, 0.11111111, 0.11111111, 0.11111111, 0.11111111],
        [0.11111111, 0.11111111, 0.11111111, 0.11111111, 0.11111111,
         0.11111111, 0.11111111, 0.11111111, 0.11111111, 0.11111111],
        [0.11111111, 0.11111111, 0.11111111, 0.11111111, 0.11111111,
         0.11111111, 0.11111111, 0.11111111, 0.11111111, 0.11111111],
        [0.11111111, 0.11111111, 0.11111111, 0.11111111, 0.11111111,
         0.11111111, 0.11111111, 0.11111111, 0.11111111, 0.11111111],
        [0.11111111, 0.11111111, 0.11111111, 0.11111111, 0.11111111,
         0.11111111, 0.11111111, 0.11111111, 0.11111111, 0.11111111],
        [0.11111111, 0.11111111, 0.11111111, 0.11111111, 0.11111111,
         0.11111111, 0.11111111, 0.11111111, 0.11111111, 0.11111111],
        [0.11111111, 0.11111111, 0.11111111, 0.11111111, 0.11111111,
         0.11111111, 0.11111111, 0.11111111, 0.11111111, 0.11111111]],

       [[0.22222222, 0.22222222, 0.22222222, 0.22222222, 0.22222222,
         0.22222222, 0.22222222, 0.22222222, 0.22222222, 0.22222222],
        [0.22222222, 0.22222222, 0.22222222, 0.22222222, 0.22222222,
         0.22222222, 0.22222222, 0.22222222, 0.22222222, 0.22222222],
        [0.22222222, 0.22222222, 0.22222222, 0.22222222, 0.22222222,
         0.22222222, 0.22222222, 0.22222222, 0.22222222, 0.22222222],
        [0.22222222, 0.22222222, 0.22222222, 0.22222222, 0.22222222,
         0.22222222, 0.22222222, 0.22222222, 0.22222222, 0.22222222],
        [0.22222222, 0.22222222, 0.22222222, 0.22222222, 0.22222222,
         0.22222222, 0.22222222, 0.22222222, 0.22222222, 0.22222222],
        [0.22222222, 0.22222222, 0.22222222, 0.22222222, 0.22222222,
         0.22222222, 0.22222222, 0.22222222, 0.22222222, 0.22222222],
        [0.22222222, 0.22222222, 0.22222222, 0.22222222, 0.22222222,
         0.22222222, 0.22222222, 0.22222222, 0.22222222, 0.22222222],
        [0.22222222, 0.22222222, 0.22222222, 0.22222222, 0.22222222,
         0.22222222, 0.22222222, 0.22222222, 0.22222222, 0.22222222],
        [0.22222222, 0.22222222, 0.22222222, 0.22222222, 0.22222222,
         0.22222222, 0.22222222, 0.22222222, 0.22222222, 0.22222222],
        [0.22222222, 0.22222222, 0.22222222, 0.22222222, 0.22222222,
         0.22222222, 0.22222222, 0.22222222, 0.22222222, 0.22222222]],

       [[0.33333334, 0.33333334, 0.33333334, 0.33333334, 0.33333334,
         0.33333334, 0.33333334, 0.33333334, 0.33333334, 0.33333334],
        [0.33333334, 0.33333334, 0.33333334, 0.33333334, 0.33333334,
         0.33333334, 0.33333334, 0.33333334, 0.33333334, 0.33333334],
        [0.33333334, 0.33333334, 0.33333334, 0.33333334, 0.33333334,
         0.33333334, 0.33333334, 0.33333334, 0.33333334, 0.33333334],
        [0.33333334, 0.33333334, 0.33333334, 0.33333334, 0.33333334,
         0.33333334, 0.33333334, 0.33333334, 0.33333334, 0.33333334],
        [0.33333334, 0.33333334, 0.33333334, 0.33333334, 0.33333334,
         0.33333334, 0.33333334, 0.33333334, 0.33333334, 0.33333334],
        [0.33333334, 0.33333334, 0.33333334, 0.33333334, 0.33333334,
         0.33333334, 0.33333334, 0.33333334, 0.33333334, 0.33333334],
        [0.33333334, 0.33333334, 0.33333334, 0.33333334, 0.33333334,
         0.33333334, 0.33333334, 0.33333334, 0.33333334, 0.33333334],
        [0.33333334, 0.33333334, 0.33333334, 0.33333334, 0.33333334,
         0.33333334, 0.33333334, 0.33333334, 0.33333334, 0.33333334],
        [0.33333334, 0.33333334, 0.33333334, 0.33333334, 0.33333334,
         0.33333334, 0.33333334, 0.33333334, 0.33333334, 0.33333334],
        [0.33333334, 0.33333334, 0.33333334, 0.33333334, 0.33333334,
         0.33333334, 0.33333334, 0.33333334, 0.33333334, 0.33333334]],

       [[0.44444445, 0.44444445, 0.44444445, 0.44444445, 0.44444445,
         0.44444445, 0.44444445, 0.44444445, 0.44444445, 0.44444445],
        [0.44444445, 0.44444445, 0.44444445, 0.44444445, 0.44444445,
         0.44444445, 0.44444445, 0.44444445, 0.44444445, 0.44444445],
        [0.44444445, 0.44444445, 0.44444445, 0.44444445, 0.44444445,
         0.44444445, 0.44444445, 0.44444445, 0.44444445, 0.44444445],
        [0.44444445, 0.44444445, 0.44444445, 0.44444445, 0.44444445,
         0.44444445, 0.44444445, 0.44444445, 0.44444445, 0.44444445],
        [0.44444445, 0.44444445, 0.44444445, 0.44444445, 0.44444445,
         0.44444445, 0.44444445, 0.44444445, 0.44444445, 0.44444445],
        [0.44444445, 0.44444445, 0.44444445, 0.44444445, 0.44444445,
         0.44444445, 0.44444445, 0.44444445, 0.44444445, 0.44444445],
        [0.44444445, 0.44444445, 0.44444445, 0.44444445, 0.44444445,
         0.44444445, 0.44444445, 0.44444445, 0.44444445, 0.44444445],
        [0.44444445, 0.44444445, 0.44444445, 0.44444445, 0.44444445,
         0.44444445, 0.44444445, 0.44444445, 0.44444445, 0.44444445],
        [0.44444445, 0.44444445, 0.44444445, 0.44444445, 0.44444445,
         0.44444445, 0.44444445, 0.44444445, 0.44444445, 0.44444445],
        [0.44444445, 0.44444445, 0.44444445, 0.44444445, 0.44444445,
         0.44444445, 0.44444445, 0.44444445, 0.44444445, 0.44444445]],

       [[0.5555556 , 0.5555556 , 0.5555556 , 0.5555556 , 0.5555556 ,
         0.5555556 , 0.5555556 , 0.5555556 , 0.5555556 , 0.5555556 ],
        [0.5555556 , 0.5555556 , 0.5555556 , 0.5555556 , 0.5555556 ,
         0.5555556 , 0.5555556 , 0.5555556 , 0.5555556 , 0.5555556 ],
        [0.5555556 , 0.5555556 , 0.5555556 , 0.5555556 , 0.5555556 ,
         0.5555556 , 0.5555556 , 0.5555556 , 0.5555556 , 0.5555556 ],
        [0.5555556 , 0.5555556 , 0.5555556 , 0.5555556 , 0.5555556 ,
         0.5555556 , 0.5555556 , 0.5555556 , 0.5555556 , 0.5555556 ],
        [0.5555556 , 0.5555556 , 0.5555556 , 0.5555556 , 0.5555556 ,
         0.5555556 , 0.5555556 , 0.5555556 , 0.5555556 , 0.5555556 ],
        [0.5555556 , 0.5555556 , 0.5555556 , 0.5555556 , 0.5555556 ,
         0.5555556 , 0.5555556 , 0.5555556 , 0.5555556 , 0.5555556 ],
        [0.5555556 , 0.5555556 , 0.5555556 , 0.5555556 , 0.5555556 ,
         0.5555556 , 0.5555556 , 0.5555556 , 0.5555556 , 0.5555556 ],
        [0.5555556 , 0.5555556 , 0.5555556 , 0.5555556 , 0.5555556 ,
         0.5555556 , 0.5555556 , 0.5555556 , 0.5555556 , 0.5555556 ],
        [0.5555556 , 0.5555556 , 0.5555556 , 0.5555556 , 0.5555556 ,
         0.5555556 , 0.5555556 , 0.5555556 , 0.5555556 , 0.5555556 ],
        [0.5555556 , 0.5555556 , 0.5555556 , 0.5555556 , 0.5555556 ,
         0.5555556 , 0.5555556 , 0.5555556 , 0.5555556 , 0.5555556 ]],

       [[0.6666667 , 0.6666667 , 0.6666667 , 0.6666667 , 0.6666667 ,
         0.6666667 , 0.6666667 , 0.6666667 , 0.6666667 , 0.6666667 ],
        [0.6666667 , 0.6666667 , 0.6666667 , 0.6666667 , 0.6666667 ,
         0.6666667 , 0.6666667 , 0.6666667 , 0.6666667 , 0.6666667 ],
        [0.6666667 , 0.6666667 , 0.6666667 , 0.6666667 , 0.6666667 ,
         0.6666667 , 0.6666667 , 0.6666667 , 0.6666667 , 0.6666667 ],
        [0.6666667 , 0.6666667 , 0.6666667 , 0.6666667 , 0.6666667 ,
         0.6666667 , 0.6666667 , 0.6666667 , 0.6666667 , 0.6666667 ],
        [0.6666667 , 0.6666667 , 0.6666667 , 0.6666667 , 0.6666667 ,
         0.6666667 , 0.6666667 , 0.6666667 , 0.6666667 , 0.6666667 ],
        [0.6666667 , 0.6666667 , 0.6666667 , 0.6666667 , 0.6666667 ,
         0.6666667 , 0.6666667 , 0.6666667 , 0.6666667 , 0.6666667 ],
        [0.6666667 , 0.6666667 , 0.6666667 , 0.6666667 , 0.6666667 ,
         0.6666667 , 0.6666667 , 0.6666667 , 0.6666667 , 0.6666667 ],
        [0.6666667 , 0.6666667 , 0.6666667 , 0.6666667 , 0.6666667 ,
         0.6666667 , 0.6666667 , 0.6666667 , 0.6666667 , 0.6666667 ],
        [0.6666667 , 0.6666667 , 0.6666667 , 0.6666667 , 0.6666667 ,
         0.6666667 , 0.6666667 , 0.6666667 , 0.6666667 , 0.6666667 ],
        [0.6666667 , 0.6666667 , 0.6666667 , 0.6666667 , 0.6666667 ,
         0.6666667 , 0.6666667 , 0.6666667 , 0.6666667 , 0.6666667 ]],

       [[0.7777778 , 0.7777778 , 0.7777778 , 0.7777778 , 0.7777778 ,
[...]
<PointData Scalars="model output">
<DataArray Name="model output" NumberOfComponents="1" type="Float32" format="appended" offset="0"/>
</PointData>
</Piece>
</ImageData>
<AppendedData encoding="raw">
_      Ȧ?mB?hv?PҲuS?Eڧ?
e/઼:u==1?~4?AN7Z?cKM?>>
4*d'- h.R|`>=;_hzVbko%]޿C?)nȿwt?w^=Sa?+@?jĺ?c\N?\?=G?CXh>uo@@5;L?44<?<?N:dd?Η?.Ի!D>''=̺?"2iR; ?wmӎXz%d:?(YW->ETt>ӄTw#AVuga?>1?RK?5'?r>[=K=n?ޝN?~#=}CBx>>g>k50CX?u>"?Qu?žri]>._
kLI_y3w>D)0?2l~?U ??3
)?R=!Y>:fdx>Bts?h>>̬"@yo=繿|+Q?\g?v@GS*	L@[s꽊o?p>
>y?J?RξZ*n>?wwx.7zhnq'ù?Wǩv< ;>?_=IK")P?tZ 2wоoa5?	?NcD?m\9m?|}O	?E¿\?'=rk{?((1B>!wtʕ?YK[>>iE?=4<?
>%nv?e2r.N?Q1@+*@Yžg9	 w6?>=:9^.5?$¿x_?>??"}?p?FĻ?PX>MH۾K?(>!{	?">/ѽX?οDh1>)N{Ch?־44@XпZ*q?H-0ro?3>[yK?.+;7?F`^N?׽8;@-?}Ⱦ>'׼=U>R>xE>*kl?=?Ӕ>H>>ݷF_,:R־?yu`?2>?2?>"^*?ɿ a?*EýVfNl?D=P^7Ǿamwh?l>?7M=H[k8?QCV>'>{t?Ddw?>b?)k*>vվ$]UE?kQ,V>`qW?^	@)?6=ԁ?t>N?s*j<?tz=a\yJMc?⓿?T?#μI@HtD?M;|?ƨ>!?;~Kݿj*->ܽݮ?RF?D=>t7>*]@ۿ⌿/
@P>9y*?N,S?T?lt,71?ֿvC?X>c
@>>p,O*O?P?q;nY??> 1ֿ.?eD8ss?Q'Z7=<>l= gJ>d?;1$o%dU=8'%@P?:>>B??+$;?b?mo?OQ?ӾS?۷ٿ<Px?vtE?;;x?"B>/ak❾q==o95Q?gXXd?zž?{y?P?d׾j >RbL̪}?&dl?NQ@%?璪?XS]?K?7?==Q7}??l?bl4Ak?>vs"?K@^?2U$?&?	8#6ؾJ?<[JB\?Lq?XWWa¿~{90X? {b?iǿY%,=?oo?F22?`c~M$59NJ駿?:1?r@\
@v&><cDP?emy׿(E<8{_%8?H>̿?趾5S>bj>p6?k?ąO;*?נ`>j?N?*Aܽ5Y@7zK= 5UԿBm>g۫?\?Ӻ'?K= @A̾ ?')>!~?EN#>U;!?sV
?>?+9CQ1?<j&!?ؑ<>c]<8@T9;\I
?2\?_v?\<e8(1e?M?=?/ʾ|)V2'R?'
l??jX?fz>\1EL>m9ǾwY>b>|W?\bzE?%?9	?Ͽ?_Aw?|j?Y?Y=>dfvuI>"mO?-Ju[;ռ?u?^@>|czbix;>Ju2=F?aѬ}?e(>r};p"ThAhˌ??>$?>Lc:¿c=	=̽>?͇?=?<Ŷ?E5+	=FC>?l#%^\=cX?{@?C{~??4 ?{;	p?3?Aj?kj<?wǾ"?n?(6+?u<|>¿h1{%(t%)?=nf =ހ_Rֿ;>???)ֽُw?U4>6׾S(P>#ཱྀ/?w*8mw ;?Β?j?ype?H"==zFV?5*Ü>"
[=^k?<?I"D?A5|-E{ }n?vx?,pZ?cf?X<I>v%a-c ?ӟ-??.?VT?i<E>-00,2Z?qs;??Π">V @i?m!q?y=%?DYXojK薿W/m?`?g۸>>~)8?a>f`?`S=wf18g>Ux>|Ee[?*?f ǘ2>-_$+ؿ ?pi%þV?ٿM==>TxX-?];)rv>U?>{ȻgځPc?b?A?/<M!˫?6>X68?U'G:e?CR?dzE?iӔ?>@6:#V?Ѿ&>W'6??̦\?m5?c ǫ<p]S?Zs>?~C?͇>>w.P?!r˿?OŒ?P=>0job{j(=#e,>e9?,0<t?T?:(`ɡC??r>?S ?򾋔ʏL?#O?e=0>d?.?Y?g?͢Yip>푾ͿͺI?ݶ?H Kq?q|?@C)?6+Y=>(K>>G6s?(?y=eLlʹ??]h O>&~ֵ?/m?Ɩ)Dj\C@-
</AppendedData>
</VTKFile>